         Total SCF energy =    -74.653754522059
@ Step       Energy      Delta E   Gmax     Grms     Xrms     Xmax   Walltime
@ ---- ---------------- -------- -------- -------- -------- -------- --------
@    0     -74.65375452  0.0D+00  0.04782  0.04646  0.00000  0.00000      0.2
         Total SCF energy =    -74.663793754568
         Total SCF energy =    -74.664179087819
@    1     -74.66417909 -1.0D-02  0.02218  0.02113  0.08087  0.17101      0.4
         Total SCF energy =    -74.669354251012
         Total SCF energy =    -74.669517282015
@    2     -74.66951728 -5.3D-03  0.00875  0.00740  0.05746  0.12486      0.6
         Total SCF energy =    -74.669736247408
         Total SCF energy =    -74.669741178475
@    3     -74.66974118 -2.2D-04  0.00046  0.00043  0.01358  0.02799      0.9
         Total SCF energy =    -74.669743218879
         Total SCF energy =    -74.669743218879
@    4     -74.66974322 -2.0D-06  0.00003  0.00003  0.00125  0.00254      1.0
         Total SCF energy =    -74.669743223079
         Total SCF energy =    -74.669743223079
@    5     -74.66974322 -4.2D-09  0.00001  0.00001  0.00007  0.00015      1.2
@    5     -74.66974322 -4.2D-09  0.00001  0.00001  0.00007  0.00015      1.2
         Total SCF energy =    -75.624186518890
          Total MP2 energy           -75.775053083927
@ Step       Energy      Delta E   Gmax     Grms     Xrms     Xmax   Walltime
@ ---- ---------------- -------- -------- -------- -------- -------- --------
@    0     -75.77505308  0.0D+00  0.02471  0.02018  0.00000  0.00000      1.7
         Total SCF energy =    -75.626926205446
          Total MP2 energy           -75.776522954025
         Total SCF energy =    -75.627694805651
          Total MP2 energy           -75.776657477096
@    1     -75.77665748 -1.6D-03  0.00172  0.00155  0.02875  0.05775      2.4
         Total SCF energy =    -75.627636674884
          Total MP2 energy           -75.776675649767
         Total SCF energy =    -75.627624789842
          Total MP2 energy           -75.776676020491
@    2     -75.77667602 -1.9D-05  0.00055  0.00048  0.00456  0.00924      3.0
         Total SCF energy =    -75.627674385824
          Total MP2 energy           -75.776677837627
         Total SCF energy =    -75.627688594027
          Total MP2 energy           -75.776677937122
@    3     -75.77667794 -1.9D-06  0.00000  0.00000  0.00123  0.00272      3.7
@    3     -75.77667794 -1.9D-06  0.00000  0.00000  0.00123  0.00272      3.7

 Output coordinates in angstroms (scale by  1.889725989 to convert to a.u.)

  No.       Tag          Charge          X              Y              Z
 ---- ---------------- ---------- -------------- -------------- --------------
    1 O                    8.0000     0.00000000     0.00000000     0.05071392
    2 H                    1.0000     0.82012355     0.00000000    -0.52033171
    3 H                    1.0000    -0.82012355     0.00000000    -0.52033171

 Zero-Point correction to Energy  =   12.140 kcal/mol  (  0.019347 au)
 Thermal correction to Energy     =   13.920 kcal/mol  (  0.022184 au)
 Thermal correction to Enthalpy   =   14.513 kcal/mol  (  0.023127 au)
 Total Entropy                    =   45.246 cal/mol-K
   - Translational                =   34.593 cal/mol-K (mol. weight =  18.0106)
   - Rotational                   =   10.641 cal/mol-K (symmetry #  =        2)
   - Vibrational                  =    0.013 cal/mol-K
   - Translational                  =    2.979 cal/mol-K
   - Rotational                     =    2.979 cal/mol-K
   - Vibrational                    =    0.079 cal/mol-K
 P.Frequency       -0.00       -0.00       -0.00        0.00        0.00        0.00
 P.Frequency     1484.77     3460.15     3551.50

 Normal Eigenvalue ||           Projected Infra Red Intensities
  Mode   [cm**-1]  || [atomic units] [(debye/angs)**2] [(KM/mol)] [arbitrary]
 ------ ---------- || -------------- ----------------- ---------- -----------
    1       -0.000 ||    0.066797           1.541        65.117       3.653
    2       -0.000 ||    0.055473           1.280        54.078       3.034
    3       -0.000 ||    0.132548           3.058       129.215       7.250
    4        0.000 ||    0.000084           0.002         0.082       0.005
    5        0.000 ||    0.266537           6.149       259.834      14.578
    6        0.000 ||    0.266537           6.149       259.834      14.578
    7     1484.765 ||    0.193384           4.462       188.520      10.577
    8     3460.153 ||    0.152667           3.522       148.827       8.350
    9     3551.497 ||    0.511497          11.801       498.633      27.976
 ----------------------------------------------------------------------------

 Total times  cpu:        5.4s     wall:        9.2s
